<?xml version="1.0" ?>
<VTKFile byte_order="LittleEndian" type="UnstructuredGrid" version="0.1">
<UnstructuredGrid>
<Piece NumberOfCells="112" NumberOfPoints="135">
<Points>
<DataArray Name="vertices" NumberOfComponents="3" format="ascii" type="Float32">0 0 0 10 0 0 10 1 0 0 1 0 0.714286 0 0 1.42857 0 0 2.14286 0 0 2.85714 0 0 3.57143 0 0 4.28571 0 0 5 0 0 5.71429 0 0 6.42857 0 0 7.14286 0 0 7.85714 0 0 8.57143 0 0 9.28571 0 0 10 0.125 0 10 0.25 0 10 0.375 0 10 0.5 0 10 0.625 0 10 0.75 0 10 0.875 0 9.28571 1 0 8.57143 1 0 7.85714 1 0 7.14286 1 0 6.42857 1 0 5.71429 1 0 5 1 0 4.28571 1 0 3.57143 1 0 2.85714 1 0 2.14286 1 0 1.42857 1 0 0.714286 1 0 0 0.875 0 0 0.75 0 0 0.625 0 0 0.5 0 0 0.375 0 0 0.25 0 0 0.125 0 0.714286 0.125 0 0.714286 0.25 0 0.714286 0.375 0 0.714286 0.5 0 0.714286 0.625 0 0.714286 0.75 0 0.714286 0.875 0 1.42857 0.125 0 1.42857 0.25 0 1.42857 0.375 0 1.42857 0.5 0 1.42857 0.625 0 1.42857 0.75 0 1.42857 0.875 0 2.14286 0.125 0 2.14286 0.25 0 2.14286 0.375 0 2.14286 0.5 0 2.14286 0.625 0 2.14286 0.75 0 2.14286 0.875 0 2.85714 0.125 0 2.85714 0.25 0 2.85714 0.375 0 2.85714 0.5 0 2.85714 0.625 0 2.85714 0.75 0 2.85714 0.875 0 3.57143 0.125 0 3.57143 0.25 0 3.57143 0.375 0 3.57143 0.5 0 3.57143 0.625 0 3.57143 0.75 0 3.57143 0.875 0 4.28571 0.125 0 4.28571 0.25 0 4.28571 0.375 0 4.28571 0.5 0 4.28571 0.625 0 4.28571 0.75 0 4.28571 0.875 0 5 0.125 0 5 0.25 0 5 0.375 0 5 0.5 0 5 0.625 0 5 0.75 0 5 0.875 0 5.71429 0.125 0 5.71429 0.25 0 5.71429 0.375 0 5.71429 0.5 0 5.71429 0.625 0 5.71429 0.75 0 5.71429 0.875 0 6.42857 0.125 0 6.42857 0.25 0 6.42857 0.375 0 6.42857 0.5 0 6.42857 0.625 0 6.42857 0.75 0 6.42857 0.875 0 7.14286 0.125 0 7.14286 0.25 0 7.14286 0.375 0 7.14286 0.5 0 7.14286 0.625 0 7.14286 0.75 0 7.14286 0.875 0 7.85714 0.125 0 7.85714 0.25 0 7.85714 0.375 0 7.85714 0.5 0 7.85714 0.625 0 7.85714 0.75 0 7.85714 0.875 0 8.57143 0.125 0 8.57143 0.25 0 8.57143 0.375 0 8.57143 0.5 0 8.57143 0.625 0 8.57143 0.75 0 8.57143 0.875 0 9.28571 0.125 0 9.28571 0.25 0 9.28571 0.375 0 9.28571 0.5 0 9.28571 0.625 0 9.28571 0.75 0 9.28571 0.875 0 </DataArray>
</Points>
<Cells>
<DataArray Name="connectivity" format="ascii" type="Int32">0 4 44 43 43 44 45 42 42 45 46 41 41 46 47 40 40 47 48 39 39 48 49 38 38 49 50 37 37 50 36 3 4 5 51 44 44 51 52 45 45 52 53 46 46 53 54 47 47 54 55 48 48 55 56 49 49 56 57 50 50 57 35 36 5 6 58 51 51 58 59 52 52 59 60 53 53 60 61 54 54 61 62 55 55 62 63 56 56 63 64 57 57 64 34 35 6 7 65 58 58 65 66 59 59 66 67 60 60 67 68 61 61 68 69 62 62 69 70 63 63 70 71 64 64 71 33 34 7 8 72 65 65 72 73 66 66 73 74 67 67 74 75 68 68 75 76 69 69 76 77 70 70 77 78 71 71 78 32 33 8 9 79 72 72 79 80 73 73 80 81 74 74 81 82 75 75 82 83 76 76 83 84 77 77 84 85 78 78 85 31 32 9 10 86 79 79 86 87 80 80 87 88 81 81 88 89 82 82 89 90 83 83 90 91 84 84 91 92 85 85 92 30 31 10 11 93 86 86 93 94 87 87 94 95 88 88 95 96 89 89 96 97 90 90 97 98 91 91 98 99 92 92 99 29 30 11 12 100 93 93 100 101 94 94 101 102 95 95 102 103 96 96 103 104 97 97 104 105 98 98 105 106 99 99 106 28 29 12 13 107 100 100 107 108 101 101 108 109 102 102 109 110 103 103 110 111 104 104 111 112 105 105 112 113 106 106 113 27 28 13 14 114 107 107 114 115 108 108 115 116 109 109 116 117 110 110 117 118 111 111 118 119 112 112 119 120 113 113 120 26 27 14 15 121 114 114 121 122 115 115 122 123 116 116 123 124 117 117 124 125 118 118 125 126 119 119 126 127 120 120 127 25 26 15 16 128 121 121 128 129 122 122 129 130 123 123 130 131 124 124 131 132 125 125 132 133 126 126 133 134 127 127 134 24 25 16 1 17 128 128 17 18 129 129 18 19 130 130 19 20 131 131 20 21 132 132 21 22 133 133 22 23 134 134 23 2 24 </DataArray>
<DataArray Name="offsets" format="ascii" type="Int32">4 8 12 16 20 24 28 32 36 40 44 48 52 56 60 64 68 72 76 80 84 88 92 96 100 104 108 112 116 120 124 128 132 136 140 144 148 152 156 160 164 168 172 176 180 184 188 192 196 200 204 208 212 216 220 224 228 232 236 240 244 248 252 256 260 264 268 272 276 280 284 288 292 296 300 304 308 312 316 320 324 328 332 336 340 344 348 352 356 360 364 368 372 376 380 384 388 392 396 400 404 408 412 416 420 424 428 432 436 440 444 448 </DataArray>
<DataArray Name="types" format="ascii" type="UInt8">9 9 9 9 9 9 9 9 9 9 9 9 9 9 9 9 9 9 9 9 9 9 9 9 9 9 9 9 9 9 9 9 9 9 9 9 9 9 9 9 9 9 9 9 9 9 9 9 9 9 9 9 9 9 9 9 9 9 9 9 9 9 9 9 9 9 9 9 9 9 9 9 9 9 9 9 9 9 9 9 9 9 9 9 9 9 9 9 9 9 9 9 9 9 9 9 9 9 9 9 9 9 9 9 9 9 9 9 9 9 9 9 </DataArray>
</Cells>
<PointData>
<DataArray Name="pdata 0" NumberOfComponents="1" format="ascii" type="Float32">0.670572 0.348237 0.93673 0.88445 0.369774 0.662217 0.482619 0.283446 0.277296 0.306501 0.207641 0.858619 0.761089 0.650118 0.40068 0.309496 0.154631 0.0333794 0.691738 0.877446 0.546207 0.489908 0.81877 0.118657 0.103676 0.625596 0.570205 0.509697 0.941935 0.219996 0.469567 0.564823 0.587509 0.236126 0.105238 0.834982 0.983242 0.151378 0.775434 0.634822 0.727546 0.932936 0.182418 0.893079 0.794482 0.106296 0.449274 0.587324 0.948973 0.226566 0.725596 0.284569 0.670934 0.0953285 0.528521 0.882811 0.584574 0.688746 0.583506 0.743578 0.917145 0.574493 0.0693774 0.147847 0.175142 0.696607 0.591211 0.336991 0.792647 0.3023 0.549092 0.0719628 0.428278 0.894116 0.0841687 0.313929 0.276236 0.0746707 0.772404 0.868371 0.32201 0.559646 0.603292 0.90701 0.104493 0.538988 0.729492 0.311403 0.409069 0.0749027 0.951196 0.435512 0.510792 0.666793 0.539499 0.187837 0.838465 0.924541 0.0188625 0.954206 0.627107 0.82888 0.0200106 0.438217 0.925302 0.484065 0.145311 0.0155834 0.708972 0.769145 0.131208 0.721767 0.769444 0.911988 0.493536 0.539835 0.429739 0.548677 0.875022 0.453081 0.781316 0.658952 0.432171 0.352938 0.0797758 0.782862 0.975772 0.688503 0.740136 0.13181 0.331384 0.826084 0.919686 0.138365 0.0191209 </DataArray>
<DataArray Name="pdata 1" NumberOfComponents="1" format="ascii" type="Float32">0.638195 0.566953 0.134706 0.885114 0.00359126 0.64061 0.0955694 0.500085 0.0712134 0.692958 0.146434 0.0101655 0.519909 0.916095 0.19106 0.302125 0.782962 0.0199913 0.421412 0.129649 0.498997 0.598373 0.671146 0.152051 0.0976301 0.00900299 0.228812 0.930273 0.19992 0.237805 0.173066 0.299425 0.157205 0.0332885 0.67194 0.411662 0.734937 0.0909462 0.365159 0.485762 0.362682 0.630668 0.81718 0.85883 0.755916 0.294656 0.564941 0.414696 0.709785 0.434843 0.840348 0.00242318 0.985591 0.810902 0.336228 0.1048 0.817735 0.719584 0.35404 0.0503006 0.637839 0.26034 0.208522 0.844787 0.456738 0.506492 0.759472 0.0707692 0.341886 0.169207 0.743652 0.540243 0.460445 0.897248 0.819172 0.955341 0.38371 0.769824 0.446676 0.753774 0.226886 0.180071 0.841991 0.165244 0.526783 0.341887 0.165614 0.560239 0.609061 0.0177068 0.824948 0.0186487 0.841094 0.432102 0.183015 0.808231 0.58356 0.791877 0.141455 0.61032 0.981432 0.724454 0.141543 0.986138 0.965557 0.860862 0.347448 0.578316 0.550967 0.198696 0.205047 0.0598837 0.988198 0.814407 0.708601 0.206368 0.0875309 0.182514 0.476602 0.777147 0.638196 0.940562 0.0843437 0.517998 0.50111 0.825308 0.633601 0.968082 0.676471 0.0707991 0.461997 0.703731 0.450995 0.926331 0.298067 </DataArray>
<DataArray Name="pdata 2" NumberOfComponents="1" format="ascii" type="Float32">0.261808 0.80297 0.887966 0.640503 0.676895 0.593865 0.662873 0.477113 0.900856 0.767783 0.926922 0.37301 0.0540112 0.476034 0.755225 0.0284115 0.682072 0.834679 0.272396 0.314951 0.625178 0.837158 0.622123 0.470341 0.121682 0.954534 0.416445 0.836702 0.300713 0.608339 0.989037 0.0355189 0.547118 0.520242 0.210597 0.442767 0.234799 0.812857 0.818295 0.153499 0.550745 0.253045 0.216623 0.848718 0.942692 0.978837 0.816769 0.119352 0.261176 0.861247 0.659563 0.861309 0.383229 0.974924 0.304773 0.171392 0.293973 0.532994 0.046071 0.413995 0.938252 0.694173 0.746774 0.178576 0.767697 0.334808 0.282858 0.171863 0.902813 0.841313 0.0922826 0.849018 0.771673 0.497075 0.196947 0.795861 0.542055 0.239157 0.915537 0.12178 0.273866 0.011926 0.355253 0.0386573 0.843958 0.948129 0.77527 0.275521 0.953871 0.522348 0.989061 0.354258 0.12429 0.749409 0.546845 0.904274 0.98653 0.62198 0.779587 0.733137 0.979628 0.405994 0.471897 0.573393 0.434079 0.753057 0.128545 0.861368 0.256101 0.684096 0.764192 0.740254 0.760804 0.597374 0.872094 0.334781 0.505999 0.146616 0.464081 0.00806315 0.729612 0.102736 0.406898 0.966101 0.313677 0.189192 0.434404 0.114532 0.907426 0.930584 0.546311 0.974649 0.119635 0.414214 0.122021 </DataArray>
</PointData>
<CellData>
<DataArray Name="cdata 0" NumberOfComponents="1" format="ascii" type="Float32">0.23515 0.223637 0.000854083 0.249787 0.729364 0.147743 0.613196 0.864024 0.360573 0.928571 0.839627 0.0190522 0.506651 0.150187 0.192472 0.674072 0.201069 0.602748 0.735116 0.153934 0.751088 0.0889465 0.408979 0.976195 0.413281 0.341935 0.0146038 0.484584 0.642167 0.1866 0.143583 0.595324 0.102862 0.116205 0.846869 0.126264 0.362627 0.0655373 0.480029 0.533741 0.760731 0.151516 0.492442 0.906914 0.999175 0.349232 0.40362 0.402184 0.372928 0.848815 0.634912 0.897028 0.877656 0.390677 0.690091 0.820932 0.711758 0.812211 0.391977 0.762461 0.860536 0.210203 0.0767224 0.859504 0.52262 0.789703 0.45661 0.108655 0.519557 0.721156 0.670482 0.068544 0.350217 0.951073 0.00946264 0.346771 0.000660864 0.363026 0.0953011 0.162769 0.57845 0.0140373 0.661577 0.550222 0.870118 0.527812 0.632683 0.428292 0.916647 0.140498 0.227979 0.648111 0.243856 0.296758 0.103689 0.322245 0.418272 0.788952 0.571942 0.263462 0.988149 0.85992 0.244014 0.879144 0.978832 0.588598 0.418331 0.431874 0.952335 0.0351735 0.567077 0.219959 </DataArray>
<DataArray Name="cvdata 0" NumberOfComponents="3" format="ascii" type="Float32">0.233552 0.852727 0.087009 0.36911 0.273383 0.564016 0.631208 0.473951 0.075653 0.587025 0.51606 0.641717 0.00617944 0.370324 0.631585 0.416695 0.210207 0.959705 0.658518 0.215492 0.158932 0.837044 0.147984 0.436422 0.283483 0.230613 0.797288 0.618587 0.521695 0.497306 0.579143 0.307211 0.522432 0.65629 0.0424194 0.287743 0.227588 0.976264 0.269395 0.592957 0.964729 0.467156 0.387843 0.0836282 0.133866 0.818812 0.774987 0.953836 0.377195 0.809224 0.278879 0.608782 0.618795 0.310468 0.667539 0.0882175 0.933081 0.161936 0.104855 0.199153 0.786819 0.956477 0.507577 0.865144 0.640821 0.767427 0.0279843 0.909888 0.604148 0.822597 0.390695 0.321016 0.0790096 0.15399 0.945449 0.395387 0.691986 0.58935 0.454418 0.566429 0.0340972 0.00920073 0.681412 0.79324 0.226001 0.450695 0.635907 0.694704 0.498957 0.559622 0.389461 0.702071 0.171319 0.106842 0.422503 0.885936 0.477406 0.988964 0.260656 0.509862 0.21426 0.884252 0.0414863 0.0943915 0.151972 0.410336 0.93 0.62688 0.741923 0.657992 0.781931 0.545786 0.0737801 0.243668 0.888167 0.416826 0.553568 0.804382 0.648362 0.441453 0.533141 0.204597 0.214236 0.975692 0.959504 0.715729 0.349051 0.882387 0.569098 0.688643 0.0805281 0.0120914 0.722716 0.156349 0.856903 0.484704 0.524226 0.902496 0.317506 0.702748 0.521083 0.497372 0.724866 0.753887 0.437756 0.742599 0.27051 0.943009 0.415696 0.416709 0.189288 0.0549752 0.053458 0.142534 0.547785 0.0971344 0.117364 0.878235 0.798881 0.138655 0.836177 0.20325 0.767037 0.302298 0.0203315 0.0497586 0.203659 0.24976 0.245462 0.100986 0.933486 0.955012 0.204672 0.481608 0.00226032 0.758444 0.0339522 0.0979061 0.83527 0.42857 0.218311 0.188738 0.627972 0.220418 0.350616 0.088695 0.776255 0.731738 0.345331 0.454584 0.563604 0.00836037 0.345966 0.903428 0.173783 0.701803 0.145705 0.717276 0.985775 0.666889 0.868013 0.0670458 0.261615 0.594317 0.295959 0.430361 0.341728 0.736289 0.581421 0.972059 0.394174 0.0477876 0.530547 0.403746 0.873698 0.665412 0.404956 0.238306 0.598378 0.789644 0.455636 0.326275 0.542353 0.353167 0.413734 0.311084 0.662942 0.639069 0.381878 0.503677 0.454702 0.246023 0.345317 0.269283 0.725151 0.980419 0.950923 0.462382 0.451864 0.880335 0.592969 0.707829 0.224102 0.739042 0.42198 0.0633542 0.434278 0.152843 0.986543 0.310317 0.533923 0.834616 0.213069 0.533555 0.906208 0.0361258 0.130682 0.271678 0.777366 0.994954 0.610969 0.532411 0.696827 0.604747 0.404149 0.158493 0.569564 0.806338 0.590008 0.111856 0.462466 0.879944 0.241024 0.893705 0.917262 0.184828 0.498554 0.755855 0.0579021 0.812054 0.784892 0.716883 0.505769 0.987992 0.166797 0.0570003 0.00900032 0.424172 0.422537 0.994437 0.81602 0.0116506 0.448647 0.0149203 0.668098 0.575691 0.950901 0.686873 0.761293 0.322777 0.91816 0.368598 0.546483 0.633633 0.321666 0.299092 0.70673 0.182903 0.0110103 0.865422 0.177666 0.80305 0.953034 0.123968 0.530568 0.696665 0.669486 0.561827 0.306922 0.82122 0.734324 0.55386 0.683595 0.626792 0.258511 0.109299 0.612263 0.881342 0.675799 0.400707 0.390169 0.0494482 0.178775 0.609346 0.634445 0.465033 </DataArray>
</CellData>
</Piece>
</UnstructuredGrid>
</VTKFile>
